data_284-ICSD
#?2017 by Fachinformationszentrum Karlsruhe, and the U.S. Secretary of 
#Commerce on behalf of the United States.  All rights reserved.
_database_code_ICSD                284
_audit_creation_date               1980/01/01
_audit_update_record               2012/08/01
_chemical_name_systematic          'Magnesium Vanadate(IV)'
_chemical_formula_structural       'Mg (V O3)'
_chemical_formula_sum              'Mg1 O3 V1'
_publ_section_title
;
Les hypovanadates de magnesium Mg V O3 et Mg V2 O5. Structure 
cristalline de Mg V O3
;
loop_
_citation_id
_citation_journal_abbrev
_citation_year
_citation_journal_volume
_citation_journal_issue
_citation_page_first
_citation_page_last
_citation_journal_id_ASTM
primary 'Journal of Solid State Chemistry' 1976 16 * 393 398 JSSCBI
_publ_author_name
;
Bouloux, J.C.;Milosevic, I.;Galy, J.
;
_cell_length_a                     5.243(2)
_cell_length_b                     10.028(4)
_cell_length_c                     5.290(2)
_cell_angle_alpha                  90.
_cell_angle_beta                   90.
_cell_angle_gamma                  90.
_cell_volume                       278.13
_cell_formula_units_Z              4
_symmetry_space_group_name_H-M     'C m c 21'
_symmetry_Int_Tables_number        36
_refine_ls_R_factor_all            0.04
loop_
_symmetry_equiv_pos_site_id
_symmetry_equiv_pos_as_xyz
  1	'x, -y, z+1/2'
  2	'-x, -y, z+1/2'
  3	'-x, y, z'
  4	'x, y, z'
  5	'x+1/2, -y+1/2, z+1/2'
  6	'-x+1/2, -y+1/2, z+1/2'
  7	'-x+1/2, y+1/2, z'
  8	'x+1/2, y+1/2, z'
loop_
_atom_type_symbol
_atom_type_oxidation_number
Mg2+	2
O2-	-2
V4+	4
loop_
_atom_site_label
_atom_site_type_symbol
_atom_site_symmetry_multiplicity
_atom_site_Wyckoff_symbol
_atom_site_fract_x
_atom_site_fract_y
_atom_site_fract_z
_atom_site_occupancy
_atom_site_attached_hydrogens
Mg1 Mg2+ 4 a 0 0.42673(3) 0 1. 0 
V1 V4+ 4 a 0 0.0686(1) 0.011(3) 1. 0 
O1 O2- 8 b 0.2383(8) -.005(1) 0.264(4) 1. 0 
O2 O2- 4 a 0 0.2330(4) 0.025(4) 1. 0 

#End of data_284-ICSD


