data_61-ICSD
#?2017 by Fachinformationszentrum Karlsruhe, and the U.S. Secretary of 
#Commerce on behalf of the United States.  All rights reserved.
_database_code_ICSD                61
_audit_creation_date               1980/01/01
_audit_update_record               2011/08/01
_chemical_name_systematic          'Potassium Technetate(VII)'
_chemical_formula_structural       'K (Tc O4)'
_chemical_formula_sum              'K1 O4 Tc1'
_publ_section_title
;
Refinements of the crystal structures of K Tc O4, K Re O4 and Os O4. 
Bond lengths in tetrahedral oxo-anions and oxides of d0 transition 
metals
;
loop_
_citation_id
_citation_journal_abbrev
_citation_year
_citation_journal_volume
_citation_journal_issue
_citation_page_first
_citation_page_last
_citation_journal_id_ASTM
primary 'Acta Crystallographica B (24,1968-38,1982)' 1976 32 * 1334 1337 ACBCAR
_publ_author_name                  'Krebs, B.;Hasse, K.'
_cell_length_a                     5.630(2)
_cell_length_b                     5.630(2)
_cell_length_c                     12.867(4)
_cell_angle_alpha                  90.
_cell_angle_beta                   90.
_cell_angle_gamma                  90.
_cell_volume                       407.84
_cell_formula_units_Z              4
_symmetry_space_group_name_H-M     'I 41/a Z'
_symmetry_Int_Tables_number        88
_refine_ls_R_factor_all            0.029
loop_
_symmetry_equiv_pos_site_id
_symmetry_equiv_pos_as_xyz
  1	'-y+3/4, x+3/4, -z+3/4'
  2	'y+1/4, -x+3/4, -z+3/4'
  3	'x, y+1/2, -z'
  4	'-x, -y, -z'
  5	'y+1/4, -x+1/4, z+1/4'
  6	'-y+3/4, x+1/4, z+1/4'
  7	'-x, -y+1/2, z'
  8	'x, y, z'
  9	'-y+1/4, x+1/4, -z+1/4'
 10	'y+3/4, -x+1/4, -z+1/4'
 11	'x+1/2, y, -z+1/2'
 12	'-x+1/2, -y+1/2, -z+1/2'
 13	'y+3/4, -x+3/4, z+3/4'
 14	'-y+1/4, x+3/4, z+3/4'
 15	'-x+1/2, -y, z+1/2'
 16	'x+1/2, y+1/2, z+1/2'
loop_
_atom_type_symbol
_atom_type_oxidation_number
K1+	1
O2-	-2
Tc7+	7
loop_
_atom_site_label
_atom_site_type_symbol
_atom_site_symmetry_multiplicity
_atom_site_Wyckoff_symbol
_atom_site_fract_x
_atom_site_fract_y
_atom_site_fract_z
_atom_site_occupancy
_atom_site_attached_hydrogens
Tc1 Tc7+ 4 a 0 0.25 0.125 1. 0 
K1 K1+ 4 b 0 0.25 0.625 1. 0 
O1 O2- 16 f 0.1089(4) 0.0254(4) 0.2008(2) 1. 0 

loop_
_atom_site_aniso_label
_atom_site_aniso_type_symbol
_atom_site_aniso_U_11
_atom_site_aniso_U_22
_atom_site_aniso_U_33
_atom_site_aniso_U_12
_atom_site_aniso_U_13
_atom_site_aniso_U_23
Tc1 Tc7+ 0.0207(2) 0.0207(2) 0.0226(2) 0 0 0
K1 K1+ 0.0290(4) 0.0290(4) 0.0249(5) 0 0 0
O1 O2- 0.0295(10) 0.0304(10) 0.0317(10) 0.0054(9) 0.0002(8) 0.0069(8)
#End of data_61-ICSD


