data_16-ICSD
#?2017 by Fachinformationszentrum Karlsruhe, and the U.S. Secretary of 
#Commerce on behalf of the United States.  All rights reserved.
_database_code_ICSD                16
_audit_creation_date               1980/01/01
_audit_update_record               2006/04/01
_chemical_name_systematic          'Dithallium Lead Hexanitrocuprate'
_chemical_formula_structural       'Tl2 Pb (Cu (N O2)6)'
_chemical_formula_sum              'Cu1 N6 O12 Pb1 Tl2'
_publ_section_title
;
Thallium lead hexanitrocuprate(II) at 295 K
;
loop_
_citation_id
_citation_journal_abbrev
_citation_year
_citation_journal_volume
_citation_journal_issue
_citation_page_first
_citation_page_last
_citation_journal_id_ASTM
primary 'Acta Crystallographica B (24,1968-38,1982)' 1976 32 * 326 328 ACBCAR
2 'Golden Book of Phase Transitions, Wroclaw' 2002 1 * 1 123 GBOPT5
_publ_author_name
;
Takagi, S.;Joesten, M.D.;Lenhert, P.G.
;
_cell_length_a                     10.7344(5)
_cell_length_b                     10.7344(5)
_cell_length_c                     10.7344(5)
_cell_angle_alpha                  90.
_cell_angle_beta                   90.
_cell_angle_gamma                  90.
_cell_volume                       1236.9
_cell_formula_units_Z              4
_symmetry_space_group_name_H-M     'F m -3'
_symmetry_Int_Tables_number        202
_refine_ls_R_factor_all            0.036
loop_
_symmetry_equiv_pos_site_id
_symmetry_equiv_pos_as_xyz
  1	'z, x, -y'
  2	'y, z, -x'
  3	'x, y, -z'
  4	'-z, -x, y'
  5	'-y, -z, x'
  6	'-x, -y, z'
  7	'z, -x, y'
  8	'y, -z, x'
  9	'x, -y, z'
 10	'-z, x, -y'
 11	'-y, z, -x'
 12	'-x, y, -z'
 13	'-z, x, y'
 14	'-y, z, x'
 15	'-x, y, z'
 16	'z, -x, -y'
 17	'y, -z, -x'
 18	'x, -y, -z'
 19	'-z, -x, -y'
 20	'-y, -z, -x'
 21	'-x, -y, -z'
 22	'z, x, y'
 23	'y, z, x'
 24	'x, y, z'
 25	'z, x+1/2, -y+1/2'
 26	'z+1/2, x, -y+1/2'
 27	'z+1/2, x+1/2, -y'
 28	'y, z+1/2, -x+1/2'
 29	'y+1/2, z, -x+1/2'
 30	'y+1/2, z+1/2, -x'
 31	'x, y+1/2, -z+1/2'
 32	'x+1/2, y, -z+1/2'
 33	'x+1/2, y+1/2, -z'
 34	'-z, -x+1/2, y+1/2'
 35	'-z+1/2, -x, y+1/2'
 36	'-z+1/2, -x+1/2, y'
 37	'-y, -z+1/2, x+1/2'
 38	'-y+1/2, -z, x+1/2'
 39	'-y+1/2, -z+1/2, x'
 40	'-x, -y+1/2, z+1/2'
 41	'-x+1/2, -y, z+1/2'
 42	'-x+1/2, -y+1/2, z'
 43	'z, -x+1/2, y+1/2'
 44	'z+1/2, -x, y+1/2'
 45	'z+1/2, -x+1/2, y'
 46	'y, -z+1/2, x+1/2'
 47	'y+1/2, -z, x+1/2'
 48	'y+1/2, -z+1/2, x'
 49	'x, -y+1/2, z+1/2'
 50	'x+1/2, -y, z+1/2'
 51	'x+1/2, -y+1/2, z'
 52	'-z, x+1/2, -y+1/2'
 53	'-z+1/2, x, -y+1/2'
 54	'-z+1/2, x+1/2, -y'
 55	'-y, z+1/2, -x+1/2'
 56	'-y+1/2, z, -x+1/2'
 57	'-y+1/2, z+1/2, -x'
 58	'-x, y+1/2, -z+1/2'
 59	'-x+1/2, y, -z+1/2'
 60	'-x+1/2, y+1/2, -z'
 61	'-z, x+1/2, y+1/2'
 62	'-z+1/2, x, y+1/2'
 63	'-z+1/2, x+1/2, y'
 64	'-y, z+1/2, x+1/2'
 65	'-y+1/2, z, x+1/2'
 66	'-y+1/2, z+1/2, x'
 67	'-x, y+1/2, z+1/2'
 68	'-x+1/2, y, z+1/2'
 69	'-x+1/2, y+1/2, z'
 70	'z, -x+1/2, -y+1/2'
 71	'z+1/2, -x, -y+1/2'
 72	'z+1/2, -x+1/2, -y'
 73	'y, -z+1/2, -x+1/2'
 74	'y+1/2, -z, -x+1/2'
 75	'y+1/2, -z+1/2, -x'
 76	'x, -y+1/2, -z+1/2'
 77	'x+1/2, -y, -z+1/2'
 78	'x+1/2, -y+1/2, -z'
 79	'-z, -x+1/2, -y+1/2'
 80	'-z+1/2, -x, -y+1/2'
 81	'-z+1/2, -x+1/2, -y'
 82	'-y, -z+1/2, -x+1/2'
 83	'-y+1/2, -z, -x+1/2'
 84	'-y+1/2, -z+1/2, -x'
 85	'-x, -y+1/2, -z+1/2'
 86	'-x+1/2, -y, -z+1/2'
 87	'-x+1/2, -y+1/2, -z'
 88	'z, x+1/2, y+1/2'
 89	'z+1/2, x, y+1/2'
 90	'z+1/2, x+1/2, y'
 91	'y, z+1/2, x+1/2'
 92	'y+1/2, z, x+1/2'
 93	'y+1/2, z+1/2, x'
 94	'x, y+1/2, z+1/2'
 95	'x+1/2, y, z+1/2'
 96	'x+1/2, y+1/2, z'
loop_
_atom_type_symbol
_atom_type_oxidation_number
Cu2+	2
N3+	3
O2-	-2
Pb2+	2
Tl1+	1
loop_
_atom_site_label
_atom_site_type_symbol
_atom_site_symmetry_multiplicity
_atom_site_Wyckoff_symbol
_atom_site_fract_x
_atom_site_fract_y
_atom_site_fract_z
_atom_site_occupancy
_atom_site_attached_hydrogens
_atom_site_B_iso_or_equiv
Cu1 Cu2+ 4 a 0 0 0 1. 0 1.35 
Pb1 Pb2+ 4 b 0 0 0.5 1. 0 1.47 
Tl1 Tl1+ 8 c 0.25 0.25 0.25 1. 0 2.95 
O1 O2- 48 h 0.09922(31) 0 0.25861(31) 1. 0 0 
N1 N3+ 24 e 0 0 0.19727(53) 1. 0 0 

loop_
_atom_site_aniso_label
_atom_site_aniso_type_symbol
_atom_site_aniso_B_11
_atom_site_aniso_B_22
_atom_site_aniso_B_33
_atom_site_aniso_B_12
_atom_site_aniso_B_13
_atom_site_aniso_B_23
O1 O2- 2.01 3.21 3.38 0 -.38 0
N1 N3+ 2.26 1.75 2.61 0 0 0
#End of data_16-ICSD


