data_282-ICSD
#?2017 by Fachinformationszentrum Karlsruhe, and the U.S. Secretary of 
#Commerce on behalf of the United States.  All rights reserved.
_database_code_ICSD                282
_audit_creation_date               1980/01/01
_audit_update_record               2011/08/01
_chemical_name_systematic          'Lithium Copper(I) Oxide'
_chemical_formula_structural       'Li Cu O'
_chemical_formula_sum              'Cu1 Li1 O1'
_publ_section_title                'Preparation et etude de Li Cu O'
loop_
_citation_id
_citation_journal_abbrev
_citation_year
_citation_journal_volume
_citation_journal_issue
_citation_page_first
_citation_page_last
_citation_journal_id_ASTM
primary 'Journal of Solid State Chemistry' 1976 16 * 325 330 JSSCBI
_publ_author_name
;
Migeon, H.N.;Zanne, M.;Gleitzer, C.
;
_cell_length_a                     8.515
_cell_length_b                     8.515
_cell_length_c                     3.81
_cell_angle_alpha                  90.
_cell_angle_beta                   90.
_cell_angle_gamma                  90.
_cell_volume                       276.24
_cell_formula_units_Z              8
_symmetry_space_group_name_H-M     'I -4 m 2'
_symmetry_Int_Tables_number        119
_refine_ls_R_factor_all            0.1
loop_
_symmetry_equiv_pos_site_id
_symmetry_equiv_pos_as_xyz
  1	'y, x, -z'
  2	'-y, -x, -z'
  3	'y, -x, -z'
  4	'-y, x, -z'
  5	'x, -y, z'
  6	'-x, y, z'
  7	'-x, -y, z'
  8	'x, y, z'
  9	'y+1/2, x+1/2, -z+1/2'
 10	'-y+1/2, -x+1/2, -z+1/2'
 11	'y+1/2, -x+1/2, -z+1/2'
 12	'-y+1/2, x+1/2, -z+1/2'
 13	'x+1/2, -y+1/2, z+1/2'
 14	'-x+1/2, y+1/2, z+1/2'
 15	'-x+1/2, -y+1/2, z+1/2'
 16	'x+1/2, y+1/2, z+1/2'
loop_
_atom_type_symbol
_atom_type_oxidation_number
Cu1+	1
Li1+	1
O2-	-2
loop_
_atom_site_label
_atom_site_type_symbol
_atom_site_symmetry_multiplicity
_atom_site_Wyckoff_symbol
_atom_site_fract_x
_atom_site_fract_y
_atom_site_fract_z
_atom_site_occupancy
_atom_site_attached_hydrogens
Li1 Li1+ 8 i 0.19 0 0.697 1. 0 
Cu1 Cu1+ 8 h 0.342 0.158 0.25 1. 0 
O1 O2- 8 i 0.159 0 0.21 1. 0 

#End of data_282-ICSD


