data_76-ICSD
#?2017 by Fachinformationszentrum Karlsruhe, and the U.S. Secretary of 
#Commerce on behalf of the United States.  All rights reserved.
_database_code_ICSD                76
_audit_creation_date               1980/01/01
_audit_update_record               2011/08/01
_chemical_name_systematic          'Tripotassium Cyclo-triphosphate(V)'
_chemical_formula_structural       'K3 (P3 O9)'
_chemical_formula_sum              'K3 O9 P3'
_publ_section_title
;
Structure cristalline du trimetaphosphate de potassium K3 P3 O9
;
loop_
_citation_id
_citation_journal_abbrev
_citation_year
_citation_journal_volume
_citation_journal_issue
_citation_page_first
_citation_page_last
_citation_journal_id_ASTM
primary 'Acta Crystallographica B (24,1968-38,1982)' 1976 32 * 1427 1430 ACBCAR
_publ_author_name
;
Bagieu-Beucher, M.;Tordjman, I.;Durif, A.;Guitel, J.C.
;
_cell_length_a                     11.074(8)
_cell_length_b                     11.965(9)
_cell_length_c                     7.350(6)
_cell_angle_alpha                  90.
_cell_angle_beta                   102.18(3)
_cell_angle_gamma                  90.
_cell_volume                       951.96
_cell_formula_units_Z              4
_symmetry_space_group_name_H-M     'P 1 21/n 1'
_symmetry_Int_Tables_number        14
_refine_ls_R_factor_all            0.04
loop_
_symmetry_equiv_pos_site_id
_symmetry_equiv_pos_as_xyz
  1	'-x+1/2, y+1/2, -z+1/2'
  2	'-x, -y, -z'
  3	'x+1/2, -y+1/2, z+1/2'
  4	'x, y, z'
loop_
_atom_type_symbol
_atom_type_oxidation_number
K1+	1
O2-	-2
P5+	5
loop_
_atom_site_label
_atom_site_type_symbol
_atom_site_symmetry_multiplicity
_atom_site_Wyckoff_symbol
_atom_site_fract_x
_atom_site_fract_y
_atom_site_fract_z
_atom_site_occupancy
_atom_site_attached_hydrogens
K1 K1+ 4 e 0.4002(2) 0.7569(2) 0.0972(4) 1. 0 
K2 K1+ 4 e 0.3783(2) 0.4183(2) 0.1469(4) 1. 0 
K3 K1+ 4 e 0.0806(3) 0.6418(2) 0.1586(4) 1. 0 
P1 P5+ 4 e 0.1641(3) 0.5547(3) 0.7715(4) 1. 0 
P2 P5+ 4 e 0.3463(3) 0.4293(2) 0.6270(4) 1. 0 
P3 P5+ 4 e 0.3246(3) 0.6719(3) 0.5757(4) 1. 0 
O1 O2- 4 e 0.2109(6) 0.4449(6) 0.6762(10) 1. 0 
O2 O2- 4 e 0.1924(6) 0.6523(6) 0.6337(9) 1. 0 
O3 O2- 4 e 0.3573(6) 0.5460(6) 0.5206(10) 1. 0 
O4 O2- 4 e 0.2415(6) 0.5717(6) 0.9582(10) 1. 0 
O5 O2- 4 e 0.0280(6) 0.5482(6) 0.7499(10) 1. 0 
O6 O2- 4 e 0.3357(6) 0.3400(6) 0.4869(10) 1. 0 
O7 O2- 4 e 0.4425(6) 0.4225(6) 0.8006(10) 1. 0 
O8 O2- 4 e 0.2978(7) 0.7388(6) 0.404(1) 1. 0 
O9 O2- 4 e 0.4188(6) 0.7103(6) 0.7388(9) 1. 0 

#End of data_76-ICSD


