data_12-ICSD
#?2017 by Fachinformationszentrum Karlsruhe, and the U.S. Secretary of 
#Commerce on behalf of the United States.  All rights reserved.
_database_code_ICSD                12
_audit_creation_date               1980/01/01
_audit_update_record               2012/08/01
_chemical_name_systematic          'Potassium Heptachlorodigallate'
_chemical_formula_structural       'K (Ga2 Cl7)'
_chemical_formula_sum              'Cl7 Ga2 K1'
_publ_section_title
;
Structure cristalline d' un chlorocomplexe de gallium: K Ga2 Cl7
;
loop_
_citation_id
_citation_journal_abbrev
_citation_year
_citation_journal_volume
_citation_journal_issue
_citation_page_first
_citation_page_last
_citation_journal_id_ASTM
primary 'Acta Crystallographica B (24,1968-38,1982)' 1976 32 * 247 250 ACBCAR
_publ_author_name
;
Mascherpa-Corral, D.;Vitse, P.;Potier, A.;Darriet, J.
;
_cell_length_a                     11.8216(3)
_cell_length_b                     8.9440(3)
_cell_length_c                     10.7080(3)
_cell_angle_alpha                  90.
_cell_angle_beta                   90.
_cell_angle_gamma                  90.
_cell_volume                       1132.18
_cell_formula_units_Z              4
_symmetry_space_group_name_H-M     'P n a 21'
_symmetry_Int_Tables_number        33
_refine_ls_R_factor_all            0.064
loop_
_symmetry_equiv_pos_site_id
_symmetry_equiv_pos_as_xyz
  1	'x+1/2, -y+1/2, z'
  2	'-x+1/2, y+1/2, z+1/2'
  3	'-x, -y, z+1/2'
  4	'x, y, z'
loop_
_atom_type_symbol
_atom_type_oxidation_number
Cl1-	-1
Ga3+	3
K1+	1
loop_
_atom_site_label
_atom_site_type_symbol
_atom_site_symmetry_multiplicity
_atom_site_Wyckoff_symbol
_atom_site_fract_x
_atom_site_fract_y
_atom_site_fract_z
_atom_site_occupancy
_atom_site_attached_hydrogens
Ga1 Ga3+ 4 a 0.3874(2) 0.3814(3) 0.2443(4) 1. 0 
Ga2 Ga3+ 4 a 0.1750(2) 0.4317(3) 0.5 1. 0 
Cl1 Cl1- 4 a 0.2561(5) 0.2600(6) 0.3706(7) 1. 0 
Cl2 Cl1- 4 a 0.2861(6) 0.4511(9) 0.6585(8) 1. 0 
Cl3 Cl1- 4 a 0.2929(7) 0.4842(8) 0.0997(7) 1. 0 
Cl4 Cl1- 4 a 0.0144(6) 0.3379(7) 0.5524(8) 1. 0 
Cl5 Cl1- 4 a 0.4708(5) 0.5363(7) 0.3672(9) 1. 0 
Cl6 Cl1- 4 a 0.1582(6) 0.6298(7) 0.3906(8) 1. 0 
Cl7 Cl1- 4 a 0.4917(6) 0.1971(8) 0.1908(8) 1. 0 
K1 K1+ 4 a 0.1168(6) 0.3701(8) 0.8878(10) 1. 0 

#End of data_12-ICSD


